# vtk DataFile Version 2.0
Data set from ImportExport Version 6.5.138.16ffde7a1
ASCII

DATASET RECTILINEAR_GRID
DIMENSIONS 25 61 43
X_COORDINATES 25 float
-1.250000 1.250000 3.750000 6.250000 8.750000 11.250000 13.750000 16.250000 18.750000 21.250000 23.750000 26.250000 28.750000 31.250000 33.750000 36.250000 38.750000 41.250000 43.750000 46.250000 48.750000 
51.250000 53.750000 56.250000 58.750000 
Y_COORDINATES 61 float
-1.250000 1.250000 3.750000 6.250000 8.750000 11.250000 13.750000 16.250000 18.750000 21.250000 23.750000 26.250000 28.750000 31.250000 33.750000 36.250000 38.750000 41.250000 43.750000 46.250000 48.750000 
51.250000 53.750000 56.250000 58.750000 61.250000 63.750000 66.250000 68.750000 71.250000 73.750000 76.250000 78.750000 81.250000 83.750000 86.250000 88.750000 91.250000 93.750000 96.250000 98.750000 
101.250000 103.750000 106.250000 108.750000 111.250000 113.750000 116.250000 118.750000 121.250000 123.750000 126.250000 128.750000 131.250000 133.750000 136.250000 138.750000 141.250000 143.750000 146.250000 148.750000 

Z_COORDINATES 43 float
-1.250000 1.250000 3.750000 6.250000 8.750000 11.250000 13.750000 16.250000 18.750000 21.250000 23.750000 26.250000 28.750000 31.250000 33.750000 36.250000 38.750000 41.250000 43.750000 46.250000 48.750000 
51.250000 53.750000 56.250000 58.750000 61.250000 63.750000 66.250000 68.750000 71.250000 73.750000 76.250000 78.750000 81.250000 83.750000 86.250000 88.750000 91.250000 93.750000 96.250000 98.750000 
101.250000 103.750000 
CELL_DATA 60480
SCALARS EulerAngles float 3
LOOKUP_TABLE default
 3.19744 1.19071 2.8433 3.19744 1.19071 2.8433 3.19744 1.19071 2.8433 3.19744 1.19071 2.8433 3.19744 1.19071 2.8433 3.19744 1.19071 2.8433 4.31577 2.16886
 5.01214 4.31577 2.16886 5.01214 4.31577 2.16886 5.01214 4.31577 2.16886 5.01214 4.31577 2.16886 5.01214 4.31577 2.16886 5.01214 4.57779 1.89467 3.43384 4.57779
 1.89467 3.43384 4.57779 1.89467 3.43384 4.57779 1.89467 3.43384 4.57779 1.89467 3.43384 4.57779 1.89467 3.43384 2.6231 0.907836 1.59796 2.6231 0.907836 1.59796
 2.6231 0.907836 1.59796 2.6231 0.907836 1.59796 2.6231 0.907836 1.59796 2.6231 0.907836 1.59796 3.19744 1.19071 2.8433 3.19744 1.19071 2.8433 3.19744 1.19071
 2.8433 3.19744 1.19071 2.8433 3.19744 1.19071 2.8433 3.19744 1.19071 2.8433 4.31577 2.16886 5.01214 4.31577 2.16886 5.01214 4.31577 2.16886 5.01214 4.31577
 2.16886 5.01214 4.31577 2.16886 5.01214 4.31577 2.16886 5.01214 4.57779 1.89467 3.43384 4.57779 1.89467 3.43384 4.57779 1.89467 3.43384 4.57779 1.89467 3.43384
 4.57779 1.89467 3.43384 4.57779 1.89467 3.43384 2.6231 0.907836 1.59796 2.6231 0.907836 1.59796 2.6231 0.907836 1.59796 2.6231 0.907836 1.59796 2.6231 0.907836
 1.59796 2.6231 0.907836 1.59796 3.19744 1.19071 2.8433 3.19744 1.19071 2.8433 3.19744 1.19071 2.8433 3.19744 1.19071 2.8433 3.19744 1.19071 2.8433 3.19744
 1.19071 2.8433 4.31577 2.16886 5.01214 4.31577 2.16886 5.01214 4.31577 2.16886 5.01214 4.31577 2.16886 5.01214 4.31577 2.16886 5.01214 4.31577 2.16886 5.01214
 4.57779 1.89467 3.43384 4.57779 1.89467 3.43384 4.57779 1.89467 3.43384 4.57779 1.89467 3.43384 4.57779 1.89467 3.43384 4.57779 1.89467 3.43384 2.6231 0.907836
 1.59796 2.6231 0.907836 1.59796 2.6231 0.907836 1.59796 2.6231 0.907836 1.59796 2.6231 0.907836 1.59796 2.6231 0.907836 1.59796 3.19744 1.19071 2.8433 3.19744
 1.19071 2.8433 3.19744 1.19071 2.8433 3.19744 1.19071 2.8433 3.19744 1.19071 2.8433 3.19744 1.19071 2.8433 4.31577 2.16886 5.01214 4.31577 2.16886 5.01214
 4.31577 2.16886 5.01214 4.31577 2.16886 5.01214 4.31577 2.16886 5.01214 4.31577 2.16886 5.01214 4.57779 1.89467 3.43384 4.57779 1.89467 3.43384 4.57779 1.89467
 3.43384 4.57779 1.89467 3.43384 4.57779 1.89467 3.43384 4.57779 1.89467 3.43384 2.6231 0.907836 1.59796 2.6231 0.907836 1.59796 2.6231 0.907836 1.59796 2.6231
 0.907836 1.59796 2.6231 0.907836 1.59796 2.6231 0.907836 1.59796 3.19744 1.19071 2.8433 3.19744 1.19071 2.8433 3.19744 1.19071 2.8433 3.19744 1.19071 2.8433
 3.19744 1.19071 2.8433 3.19744 1.19071 2.8433 4.31577 2.16886 5.01214 4.31577 2.16886 5.01214 4.31577 2.16886 5.01214 4.31577 2.16886 5.01214 4.31577 2.16886
 5.01214 4.31577 2.16886 5.01214 4.57779 1.89467 3.43384 4.57779 1.89467 3.43384 4.57779 1.89467 3.43384 4.57779 1.89467 3.43384 4.57779 1.89467 3.43384 4.57779
 1.89467 3.43384 2.6231 0.907836 1.59796 2.6231 0.907836 1.59796 2.6231 0.907836 1.59796 2.6231 0.907836 1.59796 2.6231 0.907836 1.59796 2.6231 0.907836 1.59796
 3.19744 1.19071 2.8433 3.19744 1.19071 2.8433 3.19744 1.19071 2.8433 3.19744 1.19071 2.8433 3.19744 1.19071 2.8433 3.19744 1.19071 2.8433 4.31577 2.16886
 5.01214 4.31577 2.16886 5.01214 4.31577 2.16886 5.01214 4.31577 2.16886 5.01214 4.31577 2.16886 5.01214 4.31577 2.16886 5.01214 4.57779 1.89467 3.43384 4.57779
 1.89467 3.43384 4.57779 1.89467 3.43384 4.57779 1.89467 3.43384 4.57779 1.89467 3.43384 4.57779 1.89467 3.43384 2.6231 0.907836 1.59796 2.6231 0.907836 1.59796
 2.6231 0.907836 1.59796 2.6231 0.907836 1.59796 2.6231 0.907836 1.59796 2.6231 0.907836 1.59796 0.899766 2.17956 3.71162 0.899766 2.17956 3.71162 0.899766 2.17956
 3.71162 0.899766 2.17956 3.71162 0.899766 2.17956 3.71162 0.899766 2.17956 3.71162 2.26449 0.982317 3.60938 2.26449 0.982317 3.60938 2.26449 0.982317 3.60938 2.26449
 0.982317 3.60938 2.26449 0.982317 3.60938 2.26449 0.982317 3.60938 0.0286128 2.28533 3.991 0.0286128 2.28533 3.991 0.0286128 2.28533 3.991 0.0286128 2.28533 3.991
 0.0286128 2.28533 3.991 0.0286128 2.28533 3.991 0.0803552 2.70138 2.20021 0.0803552 2.70138 2.20021 0.0803552 2.70138 2.20021 0.0803552 2.70138 2.20021 0.0803552 2.70138
 2.20021 0.0803552 2.70138 2.20021 0.899766 2.17956 3.71162 0.899766 2.17956 3.71162 0.899766 2.17956 3.71162 0.899766 2.17956 3.71162 0.899766 2.17956 3.71162 0.899766
 2.17956 3.71162 2.26449 0.982317 3.60938 2.26449 0.982317 3.60938 2.26449 0.982317 3.60938 2.26449 0.982317 3.60938 2.26449 0.982317 3.60938 2.26449 0.982317 3.60938
 0.0286128 2.28533 3.991 0.0286128 2.28533 3.991 0.0286128 2.28533 3.991 0.0286128 2.28533 3.991 0.0286128 2.28533 3.991 0.0286128 2.28533 3.991 0.0803552 2.70138
 2.20021 0.0803552 2.70138 2.20021 0.0803552 2.70138 2.20021 0.0803552 2.70138 2.20021 0.0803552 2.70138 2.20021 0.0803552 2.70138 2.20021 0.899766 2.17956 3.71162 0.899766
 2.17956 3.71162 0.899766 2.17956 3.71162 0.899766 2.17956 3.71162 0.899766 2.17956 3.71162 0.899766 2.17956 3.71162 2.26449 0.982317 3.60938 2.26449 0.982317 3.60938
 2.26449 0.982317 3.60938 2.26449 0.982317 3.60938 2.26449 0.982317 3.60938 2.26449 0.982317 3.60938 0.0286128 2.28533 3.991 0.0286128 2.28533 3.991 0.0286128 2.28533
 3.991 0.0286128 2.28533 3.991 0.0286128 2.28533 3.991 0.0286128 2.28533 3.991 0.0803552 2.70138 2.20021 0.0803552 2.70138 2.20021 0.0803552 2.70138 2.20021 0.0803552
 2.70138 2.20021 0.0803552 2.70138 2.20021 0.0803552 2.70138 2.20021 0.899766 2.17956 3.71162 0.899766 2.17956 3.71162 0.899766 2.17956 3.71162 0.899766 2.17956 3.71162
 0.899766 2.17956 3.71162 0.899766 2.17956 3.71162 2.26449 0.982317 3.60938 2.26449 0.982317 3.60938 2.26449 0.982317 3.60938 2.26449 0.982317 3.60938 2.26449 0.982317
 3.60938 2.26449 0.982317 3.60938 0.0286128 2.28533 3.991 0.0286128 2.28533 3.991 0.0286128 2.28533 3.991 0.0286128 2.28533 3.991 0.0286128 2.28533 3.991 0.0286128
 2.28533 3.991 0.0803552 2.70138 2.20021 0.0803552 2.70138 2.20021 0.0803552 2.70138 2.20021 0.0803552 2.70138 2.20021 0.0803552 2.70138 2.20021 0.0803552 2.70138 2.20021
 0.899766 2.17956 3.71162 0.899766 2.17956 3.71162 0.899766 2.17956 3.71162 0.899766 2.17956 3.71162 0.899766 2.17956 3.71162 0.899766 2.17956 3.71162 2.26449 0.982317
 3.60938 2.26449 0.982317 3.60938 2.26449 0.982317 3.60938 2.26449 0.982317 3.60938 2.26449 0.982317 3.60938 2.26449 0.982317 3.60938 0.0286128 2.28533 3.991 0.0286128
 2.28533 3.991 0.0286128 2.28533 3.991 0.0286128 2.28533 3.991 0.0286128 2.28533 3.991 0.0286128 2.28533 3.991 0.0803552 2.70138 2.20021 0.0803552 2.70138 2.20021
 0.0803552 2.70138 2.20021 0.0803552 2.70138 2.20021 0.0803552 2.70138 2.20021 0.0803552 2.70138 2.20021 0.899766 2.17956 3.71162 0.899766 2.17956 3.71162 0.899766 2.17956
 3.71162 0.899766 2.17956 3.71162 0.899766 2.17956 3.71162 0.899766 2.17956 3.71162 2.26449 0.982317 3.60938 2.26449 0.982317 3.60938 2.26449 0.982317 3.60938 2.26449
 0.982317 3.60938 2.26449 0.982317 3.60938 2.26449 0.982317 3.60938 0.0286128 2.28533 3.991 0.0286128 2.28533 3.991 0.0286128 2.28533 3.991 0.0286128 2.28533 3.991
 0.0286128 2.28533 3.991 0.0286128 2.28533 3.991 0.0803552 2.70138 2.20021 0.0803552 2.70138 2.20021 0.0803552 2.70138 2.20021 0.0803552 2.70138 2.20021 0.0803552 2.70138
 2.20021 0.0803552 2.70138 2.20021 4.99781 0.238382 0.562795 4.99781 0.238382 0.562795 4.99781 0.238382 0.562795 4.99781 0.238382 0.562795 4.99781 0.238382 0.562795 4.99781
 0.238382 0.562795 2.18877 2.02606 2.95958 2.18877 2.02606 2.95958 2.18877 2.02606 2.95958 2.18877 2.02606 2.95958 2.18877 2.02606 2.95958 2.18877 2.02606 2.95958
 0.839108 2.73515 1.19469 0.839108 2.73515 1.19469 0.839108 2.73515 1.19469 0.839108 2.73515 1.19469 0.839108 2.73515 1.19469 0.839108 2.73515 1.19469 0.514791 1.82778
 5.50472 0.514791 1.82778 5.50472 0.514791 1.82778 5.50472 0.514791 1.82778 5.50472 0.514791 1.82778 5.50472 0.514791 1.82778 5.50472 4.99781 0.238382 0.562795 4.99781
 0.238382 0.562795 4.99781 0.238382 0.562795 4.99781 0.238382 0.562795 4.99781 0.238382 0.562795 4.99781 0.238382 0.562795 2.18877 2.02606 2.95958 2.18877 2.02606 2.95958
 2.18877 2.02606 2.95958 2.18877 2.02606 2.95958 2.18877 2.02606 2.95958 2.18877 2.02606 2.95958 0.839108 2.73515 1.19469 0.839108 2.73515 1.19469 0.839108 2.73515
 1.19469 0.839108 2.73515 1.19469 0.839108 2.73515 1.19469 0.839108 2.73515 1.19469 0.514791 1.82778 5.50472 0.514791 1.82778 5.50472 0.514791 1.82778 5.50472 0.514791
 1.82778 5.50472 0.514791 1.82778 5.50472 0.514791 1.82778 5.50472 4.99781 0.238382 0.562795 4.99781 0.238382 0.562795 4.99781 0.238382 0.562795 4.99781 0.238382 0.562795
 4.99781 0.238382 0.562795 4.99781 0.238382 0.562795 2.18877 2.02606 2.95958 2.18877 2.02606 2.95958 2.18877 2.02606 2.95958 2.18877 2.02606 2.95958 2.18877 2.02606
 2.95958 2.18877 2.02606 2.95958 0.839108 2.73515 1.19469 0.839108 2.73515 1.19469 0.839108 2.73515 1.19469 0.839108 2.73515 1.19469 0.839108 2.73515 1.19469 0.839108
 2.73515 1.19469 0.514791 1.82778 5.50472 0.514791 1.82778 5.50472 0.514791 1.82778 5.50472 0.514791 1.82778 5.50472 0.514791 1.82778 5.50472 0.514791 1.82778 5.50472
 4.99781 0.238382 0.562795 4.99781 0.238382 0.562795 4.99781 0.238382 0.562795 4.99781 0.238382 0.562795 4.99781 0.238382 0.562795 4.99781 0.238382 0.562795 2.18877 2.02606
 2.95958 2.18877 2.02606 2.95958 2.18877 2.02606 2.95958 2.18877 2.02606 2.95958 2.18877 2.02606 2.95958 2.18877 2.02606 2.95958 0.839108 2.73515 1.19469 0.839108
 2.73515 1.19469 0.839108 2.73515 1.19469 0.839108 2.73515 1.19469 0.839108 2.73515 1.19469 0.839108 2.73515 1.19469 0.514791 1.82778 5.50472 0.514791 1.82778 5.50472
 0.514791 1.82778 5.50472 0.514791 1.82778 5.50472 0.514791 1.82778 5.50472 0.514791 1.82778 5.50472 4.99781 0.238382 0.562795 4.99781 0.238382 0.562795 4.99781 0.238382
 0.562795 4.99781 0.238382 0.562795 4.99781 0.238382 0.562795 4.99781 0.238382 0.562795 2.18877 2.02606 2.95958 2.18877 2.02606 2.95958 2.18877 2.02606 2.95958 2.18877
 2.02606 2.95958 2.18877 2.02606 2.95958 2.18877 2.02606 2.95958 0.839108 2.73515 1.19469 0.839108 2.73515 1.19469 0.839108 2.73515 1.19469 0.839108 2.73515 1.19469
 0.839108 2.73515 1.19469 0.839108 2.73515 1.19469 0.514791 1.82778 5.50472 0.514791 1.82778 5.50472 0.514791 1.82778 5.50472 0.514791 1.82778 5.50472 0.514791 1.82778
 5.50472 0.514791 1.82778 5.50472 4.99781 0.238382 0.562795 4.99781 0.238382 0.562795 4.99781 0.238382 0.562795 4.99781 0.238382 0.562795 4.99781 0.238382 0.562795 4.99781
 0.238382 0.562795 2.18877 2.02606 2.95958 2.18877 2.02606 2.95958 2.18877 2.02606 2.95958 2.18877 2.02606 2.95958 2.18877 2.02606 2.95958 2.18877 2.02606 2.95958
 0.839108 2.73515 1.19469 0.839108 2.73515 1.19469 0.839108 2.73515 1.19469 0.839108 2.73515 1.19469 0.839108 2.73515 1.19469 0.839108 2.73515 1.19469 0.514791 1.82778
 5.50472 0.514791 1.82778 5.50472 0.514791 1.82778 5.50472 0.514791 1.82778 5.50472 0.514791 1.82778 5.50472 0.514791 1.82778 5.50472 5.1888 2.98395 1.34348 5.1888
 2.98395 1.34348 5.1888 2.98395 1.34348 5.1888 2.98395 1.34348 5.1888 2.98395 1.34348 5.1888 2.98395 1.34348 5.81461 2.80071 0.10272 5.81461 2.80071 0.10272
 5.81461 2.80071 0.10272 5.81461 2.80071 0.10272 5.81461 2.80071 0.10272 5.81461 2.80071 0.10272 5.83292 2.49243 3.5536 5.83292 2.49243 3.5536 5.83292 2.49243
 3.5536 5.83292 2.49243 3.5536 5.83292 2.49243 3.5536 5.83292 2.49243 3.5536 4.48626 2.22384 2.42047 4.48626 2.22384 2.42047 4.48626 2.22384 2.42047 4.48626
 2.22384 2.42047 4.48626 2.22384 2.42047 4.48626 2.22384 2.42047 5.1888 2.98395 1.34348 5.1888 2.98395 1.34348 5.1888 2.98395 1.34348 5.1888 2.98395 1.34348
 5.1888 2.98395 1.34348 5.1888 2.98395 1.34348 5.81461 2.80071 0.10272 5.81461 2.80071 0.10272 5.81461 2.80071 0.10272 5.81461 2.80071 0.10272 5.81461 2.80071
 0.10272 5.81461 2.80071 0.10272 5.83292 2.49243 3.5536 5.83292 2.49243 3.5536 5.83292 2.49243 3.5536 5.83292 2.49243 3.5536 5.83292 2.49243 3.5536 5.83292
 2.49243 3.5536 4.48626 2.22384 2.42047 4.48626 2.22384 2.42047 4.48626 2.22384 2.42047 4.48626 2.22384 2.42047 4.48626 2.22384 2.42047 4.48626 2.22384 2.42047
 5.1888 2.98395 1.34348 5.1888 2.98395 1.34348 5.1888 2.98395 1.34348 5.1888 2.98395 1.34348 5.1888 2.98395 1.34348 5.1888 2.98395 1.34348 5.81461 2.80071
 0.10272 5.81461 2.80071 0.10272 5.81461 2.80071 0.10272 5.81461 2.80071 0.10272 5.81461 2.80071 0.10272 5.81461 2.80071 0.10272 5.83292 2.49243 3.5536 5.83292
 2.49243 3.5536 5.83292 2.49243 3.5536 5.83292 2.49243 3.5536 5.83292 2.49243 3.5536 5.83292 2.49243 3.5536 4.48626 2.22384 2.42047 4.48626 2.22384 2.42047
 4.48626 2.22384 2.42047 4.48626 2.22384 2.42047 4.48626 2.22384 2.42047 4.48626 2.22384 2.42047 5.1888 2.98395 1.34348 5.1888 2.98395 1.34348 5.1888 2.98395
 1.34348 5.1888 2.98395 1.34348 5.1888 2.98395 1.34348 5.1888 2.98395 1.34348 5.81461 2.80071 0.10272 5.81461 2.80071 0.10272 5.81461 2.80071 0.10272 5.81461
 2.80071 0.10272 5.81461 2.80071 0.10272 5.81461 2.80071 0.10272 5.83292 2.49243 3.5536 5.83292 2.49243 3.5536 5.83292 2.49243 3.5536 5.83292 2.49243 3.5536
 5.83292 2.49243 3.5536 5.83292 2.49243 3.5536 4.48626 2.22384 2.42047 4.48626 2.22384 2.42047 4.48626 2.22384 2.42047 4.48626 2.22384 2.42047 4.48626 2.22384
 2.42047 4.48626 2.22384 2.42047 5.1888 2.98395 1.34348 5.1888 2.98395 1.34348 5.1888 2.98395 1.34348 5.1888 2.98395 1.34348 5.1888 2.98395 1.34348 5.1888
 2.98395 1.34348 5.81461 2.80071 0.10272 5.81461 2.80071 0.10272 5.81461 2.80071 0.10272 5.81461 2.80071 0.10272 5.81461 2.80071 0.10272 5.81461 2.80071 0.10272
 5.83292 2.49243 3.5536 5.83292 2.49243 3.5536 5.83292 2.49243 3.5536 5.83292 2.49243 3.5536 5.83292 2.49243 3.5536 5.83292 2.49243 3.5536 4.48626 2.22384
 2.42047 4.48626 2.22384 2.42047 4.48626 2.22384 2.42047 4.48626 2.22384 2.42047 4.48626 2.22384 2.42047 4.48626 2.22384 2.42047 5.1888 2.98395 1.34348 5.1888
 2.98395 1.34348 5.1888 2.98395 1.34348 5.1888 2.98395 1.34348 5.1888 2.98395 1.34348 5.1888 2.98395 1.34348 5.81461 2.80071 0.10272 5.81461 2.80071 0.10272
 5.81461 2.80071 0.10272 5.81461 2.80071 0.10272 5.81461 2.80071 0.10272 5.81461 2.80071 0.10272 5.83292 2.49243 3.5536 5.83292 2.49243 3.5536 5.83292 2.49243
 3.5536 5.83292 2.49243 3.5536 5.83292 2.49243 3.5536 5.83292 2.49243 3.5536 4.48626 2.22384 2.42047 4.48626 2.22384 2.42047 4.48626 2.22384 2.42047 4.48626
 2.22384 2.42047 4.48626 2.22384 2.42047 4.48626 2.22384 2.42047 4.30997 1.29953 2.9776 4.30997 1.29953 2.9776 4.30997 1.29953 2.9776 4.30997 1.29953 2.9776
 4.30997 1.29953 2.9776 4.30997 1.29953 2.9776 5.80232 1.92397 4.30564 5.80232 1.92397 4.30564 5.80232 1.92397 4.30564 5.80232 1.92397 4.30564 5.80232 1.92397
 4.30564 5.80232 1.92397 4.30564 6.24978 2.12479 4.75738 6.24978 2.12479 4.75738 6.24978 2.12479 4.75738 6.24978 2.12479 4.75738 6.24978 2.12479 4.75738 6.24978
 2.12479 4.75738 0.187157 0.824083 1.39286 0.187157 0.824083 1.39286 0.187157 0.824083 1.39286 0.187157 0.824083 1.39286 0.187157 0.824083 1.39286 0.187157 0.824083 1.39286
 4.30997 1.29953 2.9776 4.30997 1.29953 2.9776 4.30997 1.29953 2.9776 4.30997 1.29953 2.9776 4.30997 1.29953 2.9776 4.30997 1.29953 2.9776 5.80232 1.92397
 4.30564 5.80232 1.92397 4.30564 5.80232 1.92397 4.30564 5.80232 1.92397 4.30564 5.80232 1.92397 4.30564 5.80232 1.92397 4.30564 6.24978 2.12479 4.75738 6.24978
 2.12479 4.75738 6.24978 2.12479 4.75738 6.24978 2.12479 4.75738 6.24978 2.12479 4.75738 6.24978 2.12479 4.75738 0.187157 0.824083 1.39286 0.187157 0.824083 1.39286
 0.187157 0.824083 1.39286 0.187157 0.824083 1.39286 0.187157 0.824083 1.39286 0.187157 0.824083 1.39286 4.30997 1.29953 2.9776 4.30997 1.29953 2.9776 4.30997 1.29953
 2.9776 4.30997 1.29953 2.9776 4.30997 1.29953 2.9776 4.30997 1.29953 2.9776 5.80232 1.92397 4.30564 5.80232 1.92397 4.30564 5.80232 1.92397 4.30564 5.80232
 1.92397 4.30564 5.80232 1.92397 4.30564 5.80232 1.92397 4.30564 6.24978 2.12479 4.75738 6.24978 2.12479 4.75738 6.24978 2.12479 4.75738 6.24978 2.12479 4.75738
 6.24978 2.12479 4.75738 6.24978 2.12479 4.75738 0.187157 0.824083 1.39286 0.187157 0.824083 1.39286 0.187157 0.824083 1.39286 0.187157 0.824083 1.39286 0.187157 0.824083
 1.39286 0.187157 0.824083 1.39286 4.30997 1.29953 2.9776 4.30997 1.29953 2.9776 4.30997 1.29953 2.9776 4.30997 1.29953 2.9776 4.30997 1.29953 2.9776 4.30997
 1.29953 2.9776 5.80232 1.92397 4.30564 5.80232 1.92397 4.30564 5.80232 1.92397 4.30564 5.80232 1.92397 4.30564 5.80232 1.92397 4.30564 5.80232 1.92397 4.30564
 6.24978 2.12479 4.75738 6.24978 2.12479 4.75738 6.24978 2.12479 4.75738 6.24978 2.12479 4.75738 6.24978 2.12479 4.75738 6.24978 2.12479 4.75738 0.187157 0.824083
 1.39286 0.187157 0.824083 1.39286 0.187157 0.824083 1.39286 0.187157 0.824083 1.39286 0.187157 0.824083 1.39286 0.187157 0.824083 1.39286 4.30997 1.29953 2.9776 4.30997
 1.29953 2.9776 4.30997 1.29953 2.9776 4.30997 1.29953 2.9776 4.30997 1.29953 2.9776 4.30997 1.29953 2.9776 5.80232 1.92397 4.30564 5.80232 1.92397 4.30564
 5.80232 1.92397 4.30564 5.80232 1.92397 4.30564 5.80232 1.92397 4.30564 5.80232 1.92397 4.30564 6.24978 2.12479 4.75738 6.24978 2.12479 4.75738 6.24978 2.12479
 4.75738 6.24978 2.12479 4.75738 6.24978 2.12479 4.75738 6.24978 2.12479 4.75738 0.187157 0.824083 1.39286 0.187157 0.824083 1.39286 0.187157 0.824083 1.39286 0.187157
 0.824083 1.39286 0.187157 0.824083 1.39286 0.187157 0.824083 1.39286 4.30997 1.29953 2.9776 4.30997 1.29953 2.9776 4.30997 1.29953 2.9776 4.30997 1.29953 2.9776
 4.30997 1.29953 2.9776 4.30997 1.29953 2.9776 5.80232 1.92397 4.30564 5.80232 1.92397 4.30564 5.80232 1.92397 4.30564 5.80232 1.92397 4.30564 5.80232 1.92397
 4.30564 5.80232 1.92397 4.30564 6.24978 2.12479 4.75738 6.24978 2.12479 4.75738 6.24978 2.12479 4.75738 6.24978 2.12479 4.75738 6.24978 2.12479 4.75738 6.24978
 2.12479 4.75738 0.187157 0.824083 1.39286 0.187157 0.824083 1.39286 0.187157 0.824083 1.39286 0.187157 0.824083 1.39286 0.187157 0.824083 1.39286 0.187157 0.824083 1.39286
 3.56126 1.17895 3.40312 3.56126 1.17895 3.40312 3.56126 1.17895 3.40312 3.56126 1.17895 3.40312 3.56126 1.17895 3.40312 3.56126 1.17895 3.40312 1.26551 0.201164
 3.69063 1.26551 0.201164 3.69063 1.26551 0.201164 3.69063 1.26551 0.201164 3.69063 1.26551 0.201164 3.69063 1.26551 0.201164 3.69063 2.81129 2.14565 0.66321 2.81129
 2.14565 0.66321 2.81129 2.14565 0.66321 2.81129 2.14565 0.66321 2.81129 2.14565 0.66321 2.81129 2.14565 0.66321 6.07896 1.32483 3.27937 6.07896 1.32483 3.27937
 6.07896 1.32483 3.27937 6.07896 1.32483 3.27937 6.07896 1.32483 3.27937 6.07896 1.32483 3.27937 3.56126 1.17895 3.40312 3.56126 1.17895 3.40312 3.56126 1.17895
 3.40312 3.56126 1.17895 3.40312 3.56126 1.17895 3.40312 3.56126 1.17895 3.40312 1.26551 0.201164 3.69063 1.26551 0.201164 3.69063 1.26551 0.201164 3.69063 1.26551
 0.201164 3.69063 1.26551 0.201164 3.69063 1.26551 0.201164 3.69063 2.81129 2.14565 0.66321 2.81129 2.14565 0.66321 2.81129 2.14565 0.66321 2.81129 2.14565 0.66321
 2.81129 2.14565 0.66321 2.81129 2.14565 0.66321 6.07896 1.32483 3.27937 6.07896 1.32483 3.27937 6.07896 1.32483 3.27937 6.07896 1.32483 3.27937 6.07896 1.32483
 3.27937 6.07896 1.32483 3.27937 3.56126 1.17895 3.40312 3.56126 1.17895 3.40312 3.56126 1.17895 3.40312 3.56126 1.17895 3.40312 3.56126 1.17895 3.40312 3.56126
 1.17895 3.40312 1.26551 0.201164 3.69063 1.26551 0.201164 3.69063 1.26551 0.201164 3.69063 1.26551 0.201164 3.69063 1.26551 0.201164 3.69063 1.26551 0.201164 3.69063
 2.81129 2.14565 0.66321 2.81129 2.14565 0.66321 2.81129 2.14565 0.66321 2.81129 2.14565 0.66321 2.81129 2.14565 0.66321 2.81129 2.14565 0.66321 6.07896 1.32483
 3.27937 6.07896 1.32483 3.27937 6.07896 1.32483 3.27937 6.07896 1.32483 3.27937 6.07896 1.32483 3.27937 6.07896 1.32483 3.27937 3.56126 1.17895 3.40312 3.56126
 1.17895 3.40312 3.56126 1.17895 3.40312 3.56126 1.17895 3.40312 3.56126 1.17895 3.40312 3.56126 1.17895 3.40312 1.26551 0.201164 3.69063 1.26551 0.201164 3.69063
 1.26551 0.201164 3.69063 1.26551 0.201164 3.69063 1.26551 0.201164 3.69063 1.26551 0.201164 3.69063 2.81129 2.14565 0.66321 2.81129 2.14565 0.66321 2.81129 2.14565
 0.66321 2.81129 2.14565 0.66321 2.81129 2.14565 0.66321 2.81129 2.14565 0.66321 6.07896 1.32483 3.27937 6.07896 1.32483 3.27937 6.07896 1.32483 3.27937 6.07896
 1.32483 3.27937 6.07896 1.32483 3.27937 6.07896 1.32483 3.27937 3.56126 1.17895 3.40312 3.56126 1.17895 3.40312 3.56126 1.17895 3.40312 3.56126 1.17895 3.40312
 3.56126 1.17895 3.40312 3.56126 1.17895 3.40312 1.26551 0.201164 3.69063 1.26551 0.201164 3.69063 1.26551 0.201164 3.69063 1.26551 0.201164 3.69063 1.26551 0.201164
 3.69063 1.26551 0.201164 3.69063 2.81129 2.14565 0.66321 2.81129 2.14565 0.66321 2.81129 2.14565 0.66321 2.81129 2.14565 0.66321 2.81129 2.14565 0.66321 2.81129
 2.14565 0.66321 6.07896 1.32483 3.27937 6.07896 1.32483 3.27937 6.07896 1.32483 3.27937 6.07896 1.32483 3.27937 6.07896 1.32483 3.27937 6.07896 1.32483 3.27937
 3.56126 1.17895 3.40312 3.56126 1.17895 3.40312 3.56126 1.17895 3.40312 3.56126 1.17895 3.40312 3.56126 1.17895 3.40312 3.56126 1.17895 3.40312 1.26551 0.201164
 3.69063 1.26551 0.201164 3.69063 1.26551 0.201164 3.69063 1.26551 0.201164 3.69063 1.26551 0.201164 3.69063 1.26551 0.201164 3.69063 2.81129 2.14565 0.66321 2.81129
 2.14565 0.66321 2.81129 2.14565 0.66321 2.81129 2.14565 0.66321 2.81129 2.14565 0.66321 2.81129 2.14565 0.66321 6.07896 1.32483 3.27937 6.07896 1.32483 3.27937
 6.07896 1.32483 3.27937 6.07896 1.32483 3.27937 6.07896 1.32483 3.27937 6.07896 1.32483 3.27937 1.02344 0.627416 0.271714 1.02344 0.627416 0.271714 1.02344 0.627416
 0.271714 1.02344 0.627416 0.271714 1.02344 0.627416 0.271714 1.02344 0.627416 0.271714 5.17121 2.4249 1.36599 5.17121 2.4249 1.36599 5.17121 2.4249 1.36599 5.17121
 2.4249 1.36599 5.17121 2.4249 1.36599 5.17121 2.4249 1.36599 2.41114 0.844157 2.65979 2.41114 0.844157 2.65979 2.41114 0.844157 2.65979 2.41114 0.844157 2.65979
 2.41114 0.844157 2.65979 2.41114 0.844157 2.65979 4.42473 1.57152 3.13763 4.42473 1.57152 3.13763 4.42473 1.57152 3.13763 4.42473 1.57152 3.13763 4.42473 1.57152
 3.13763 4.42473 1.57152 3.13763 1.02344 0.627416 0.271714 1.02344 0.627416 0.271714 1.02344 0.627416 0.271714 1.02344 0.627416 0.271714 1.02344 0.627416 0.271714 1.02344
 0.627416 0.271714 5.17121 2.4249 1.36599 5.17121 2.4249 1.36599 5.17121 2.4249 1.36599 5.17121 2.4249 1.36599 5.17121 2.4249 1.36599 5.17121 2.4249 1.36599
 2.41114 0.844157 2.65979 2.41114 0.844157 2.65979 2.41114 0.844157 2.65979 2.41114 0.844157 2.65979 2.41114 0.844157 2.65979 2.41114 0.844157 2.65979 4.42473 1.57152
 3.13763 4.42473 1.57152 3.13763 4.42473 1.57152 3.13763 4.42473 1.57152 3.13763 4.42473 1.57152 3.13763 4.42473 1.57152 3.13763 1.02344 0.627416 0.271714 1.02344
 0.627416 0.271714 1.02344 0.627416 0.271714 1.02344 0.627416 0.271714 1.02344 0.627416 0.271714 1.02344 0.627416 0.271714 5.17121 2.4249 1.36599 5.17121 2.4249 1.36599
 5.17121 2.4249 1.36599 5.17121 2.4249 1.36599 5.17121 2.4249 1.36599 5.17121 2.4249 1.36599 2.41114 0.844157 2.65979 2.41114 0.844157 2.65979 2.41114 0.844157
 2.65979 2.41114 0.844157 2.65979 2.41114 0.844157 2.65979 2.41114 0.844157 2.65979 4.42473 1.57152 3.13763 4.42473 1.57152 3.13763 4.42473 1.57152 3.13763 4.42473
 1.57152 3.13763 4.42473 1.57152 3.13763 4.42473 1.57152 3.13763 1.02344 0.627416 0.271714 1.02344 0.627416 0.271714 1.02344 0.627416 0.271714 1.02344 0.627416 0.271714
 1.02344 0.627416 0.271714 1.02344 0.627416 0.271714 5.17121 2.4249 1.36599 5.17121 2.4249 1.36599 5.17121 2.4249 1.36599 5.17121 2.4249 1.36599 5.17121 2.4249
 1.36599 5.17121 2.4249 1.36599 2.41114 0.844157 2.65979 2.41114 0.844157 2.65979 2.41114 0.844157 2.65979 2.41114 0.844157 2.65979 2.41114 0.844157 2.65979 2.41114
 0.844157 2.65979 4.42473 1.57152 3.13763 4.42473 1.57152 3.13763 4.42473 1.57152 3.13763 4.42473 1.57152 3.13763 4.42473 1.57152 3.13763 4.42473 1.57152 3.13763
 1.02344 0.627416 0.271714 1.02344 0.627416 0.271714 1.02344 0.627416 0.271714 1.02344 0.627416 0.271714 1.02344 0.627416 0.271714 1.02344 0.627416 0.271714 5.17121 2.4249
 1.36599 5.17121 2.4249 1.36599 5.17121 2.4249 1.36599 5.17121 2.4249 1.36599 5.17121 2.4249 1.36599 5.17121 2.4249 1.36599 2.41114 0.844157 2.65979 2.41114
 0.844157 2.65979 2.41114 0.844157 2.65979 2.41114 0.844157 2.65979 2.41114 0.844157 2.65979 2.41114 0.844157 2.65979 4.42473 1.57152 3.13763 4.42473 1.57152 3.13763
 4.42473 1.57152 3.13763 4.42473 1.57152 3.13763 4.42473 1.57152 3.13763 4.42473 1.57152 3.13763 1.02344 0.627416 0.271714 1.02344 0.627416 0.271714 1.02344 0.627416
 0.271714 1.02344 0.627416 0.271714 1.02344 0.627416 0.271714 1.02344 0.627416 0.271714 5.17121 2.4249 1.36599 5.17121 2.4249 1.36599 5.17121 2.4249 1.36599 5.17121
 2.4249 1.36599 5.17121 2.4249 1.36599 5.17121 2.4249 1.36599 2.41114 0.844157 2.65979 2.41114 0.844157 2.65979 2.41114 0.844157 2.65979 2.41114 0.844157 2.65979
 2.41114 0.844157 2.65979 2.41114 0.844157 2.65979 4.42473 1.57152 3.13763 4.42473 1.57152 3.13763 4.42473 1.57152 3.13763 4.42473 1.57152 3.13763 4.42473 1.57152
 3.13763 4.42473 1.57152 3.13763 2.3412 1.16491 0.707844 2.3412 1.16491 0.707844 2.3412 1.16491 0.707844 2.3412 1.16491 0.707844 2.3412 1.16491 0.707844 2.3412
 1.16491 0.707844 2.94135 1.49356 1.57856 2.94135 1.49356 1.57856 2.94135 1.49356 1.57856 2.94135 1.49356 1.57856 2.94135 1.49356 1.57856 2.94135 1.49356 1.57856
 4.94193 2.15124 5.38867 4.94193 2.15124 5.38867 4.94193 2.15124 5.38867 4.94193 2.15124 5.38867 4.94193 2.15124 5.38867 4.94193 2.15124 5.38867 3.64241 0.676658
 5.24228 3.64241 0.676658 5.24228 3.64241 0.676658 5.24228 3.64241 0.676658 5.24228 3.64241 0.676658 5.24228 3.64241 0.676658 5.24228 2.3412 1.16491 0.707844 2.3412
 1.16491 0.707844 2.3412 1.16491 0.707844 2.3412 1.16491 0.707844 2.3412 1.16491 0.707844 2.3412 1.16491 0.707844 2.94135 1.49356 1.57856 2.94135 1.49356 1.57856
 2.94135 1.49356 1.57856 2.94135 1.49356 1.57856 2.94135 1.49356 1.57856 2.94135 1.49356 1.57856 4.94193 2.15124 5.38867 4.94193 2.15124 5.38867 4.94193 2.15124
 5.38867 4.94193 2.15124 5.38867 4.94193 2.15124 5.38867 4.94193 2.15124 5.38867 3.64241 0.676658 5.24228 3.64241 0.676658 5.24228 3.64241 0.676658 5.24228 3.64241
 0.676658 5.24228 3.64241 0.676658 5.24228 3.64241 0.676658 5.24228 2.3412 1.16491 0.707844 2.3412 1.16491 0.707844 2.3412 1.16491 0.707844 2.3412 1.16491 0.707844
 2.3412 1.16491 0.707844 2.3412 1.16491 0.707844 2.94135 1.49356 1.57856 2.94135 1.49356 1.57856 2.94135 1.49356 1.57856 2.94135 1.49356 1.57856 2.94135 1.49356
 1.57856 2.94135 1.49356 1.57856 4.94193 2.15124 5.38867 4.94193 2.15124 5.38867 4.94193 2.15124 5.38867 4.94193 2.15124 5.38867 4.94193 2.15124 5.38867 4.94193
 2.15124 5.38867 3.64241 0.676658 5.24228 3.64241 0.676658 5.24228 3.64241 0.676658 5.24228 3.64241 0.676658 5.24228 3.64241 0.676658 5.24228 3.64241 0.676658 5.24228
 2.3412 1.16491 0.707844 2.3412 1.16491 0.707844 2.3412 1.16491 0.707844 2.3412 1.16491 0.707844 2.3412 1.16491 0.707844 2.3412 1.16491 0.707844 2.94135 1.49356
 1.57856 2.94135 1.49356 1.57856 2.94135 1.49356 1.57856 2.94135 1.49356 1.57856 2.94135 1.49356 1.57856 2.94135 1.49356 1.57856 4.94193 2.15124 5.38867 4.94193
 2.15124 5.38867 4.94193 2.15124 5.38867 4.94193 2.15124 5.38867 4.94193 2.15124 5.38867 4.94193 2.15124 5.38867 3.64241 0.676658 5.24228 3.64241 0.676658 5.24228
 3.64241 0.676658 5.24228 3.64241 0.676658 5.24228 3.64241 0.676658 5.24228 3.64241 0.676658 5.24228 2.3412 1.16491 0.707844 2.3412 1.16491 0.707844 2.3412 1.16491
 0.707844 2.3412 1.16491 0.707844 2.3412 1.16491 0.707844 2.3412 1.16491 0.707844 2.94135 1.49356 1.57856 2.94135 1.49356 1.57856 2.94135 1.49356 1.57856 2.94135
 1.49356 1.57856 2.94135 1.49356 1.57856 2.94135 1.49356 1.57856 4.94193 2.15124 5.38867 4.94193 2.15124 5.38867 4.94193 2.15124 5.38867 4.94193 2.15124 5.38867
 4.94193 2.15124 5.38867 4.94193 2.15124 5.38867 3.64241 0.676658 5.24228 3.64241 0.676658 5.24228 3.64241 0.676658 5.24228 3.64241 0.676658 5.24228 3.64241 0.676658
 5.24228 3.64241 0.676658 5.24228 2.3412 1.16491 0.707844 2.3412 1.16491 0.707844 2.3412 1.16491 0.707844 2.3412 1.16491 0.707844 2.3412 1.16491 0.707844 2.3412
 1.16491 0.707844 2.94135 1.49356 1.57856 2.94135 1.49356 1.57856 2.94135 1.49356 1.57856 2.94135 1.49356 1.57856 2.94135 1.49356 1.57856 2.94135 1.49356 1.57856
 4.94193 2.15124 5.38867 4.94193 2.15124 5.38867 4.94193 2.15124 5.38867 4.94193 2.15124 5.38867 4.94193 2.15124 5.38867 4.94193 2.15124 5.38867 3.64241 0.676658
 5.24228 3.64241 0.676658 5.24228 3.64241 0.676658 5.24228 3.64241 0.676658 5.24228 3.64241 0.676658 5.24228 3.64241 0.676658 5.24228 5.6584 0.584213 0.949798 5.6584
 0.584213 0.949798 5.6584 0.584213 0.949798 5.6584 0.584213 0.949798 5.6584 0.584213 0.949798 5.6584 0.584213 0.949798 6.23188 0.804258 1.24858 6.23188 0.804258 1.24858